Position Data

2048 atoms
1 atom types

-10.00 10.00 xlo xhi
-10.00 10.00 ylo yhi
-10.00 10.00 zlo zhi

Atoms

1 1 -6.8 -6.8 -6.8
2 1 -6.8 -5.95 -5.95
3 1 -5.95 -6.8 -5.95
4 1 -5.95 -5.95 -6.8
5 1 -6.8 -6.8 -5.1
6 1 -6.8 -5.95 -4.25
7 1 -5.95 -6.8 -4.25
8 1 -5.95 -5.95 -5.1
9 1 -6.8 -6.8 -3.4
10 1 -6.8 -5.95 -2.55
11 1 -5.95 -6.8 -2.55
12 1 -5.95 -5.95 -3.4
13 1 -6.8 -6.8 -1.7
14 1 -6.8 -5.95 -0.85
15 1 -5.95 -6.8 -0.85
16 1 -5.95 -5.95 -1.7
17 1 -6.8 -6.8 0.0
18 1 -6.8 -5.95 0.85
19 1 -5.95 -6.8 0.85
20 1 -5.95 -5.95 0.0
21 1 -6.8 -6.8 1.7
22 1 -6.8 -5.95 2.55
23 1 -5.95 -6.8 2.55
24 1 -5.95 -5.95 1.7
25 1 -6.8 -6.8 3.4
26 1 -6.8 -5.95 4.25
27 1 -5.95 -6.8 4.25
28 1 -5.95 -5.95 3.4
29 1 -6.8 -6.8 5.1
30 1 -6.8 -5.95 5.949999999999999
31 1 -5.95 -6.8 5.949999999999999
32 1 -5.95 -5.95 5.1
33 1 -6.8 -5.1 -6.8
34 1 -6.8 -4.25 -5.95
35 1 -5.95 -5.1 -5.95
36 1 -5.95 -4.25 -6.8
37 1 -6.8 -5.1 -5.1
38 1 -6.8 -4.25 -4.25
39 1 -5.95 -5.1 -4.25
40 1 -5.95 -4.25 -5.1
41 1 -6.8 -5.1 -3.4
42 1 -6.8 -4.25 -2.55
43 1 -5.95 -5.1 -2.55
44 1 -5.95 -4.25 -3.4
45 1 -6.8 -5.1 -1.7
46 1 -6.8 -4.25 -0.85
47 1 -5.95 -5.1 -0.85
48 1 -5.95 -4.25 -1.7
49 1 -6.8 -5.1 0.0
50 1 -6.8 -4.25 0.85
51 1 -5.95 -5.1 0.85
52 1 -5.95 -4.25 0.0
53 1 -6.8 -5.1 1.7
54 1 -6.8 -4.25 2.55
55 1 -5.95 -5.1 2.55
56 1 -5.95 -4.25 1.7
57 1 -6.8 -5.1 3.4
58 1 -6.8 -4.25 4.25
59 1 -5.95 -5.1 4.25
60 1 -5.95 -4.25 3.4
61 1 -6.8 -5.1 5.1
62 1 -6.8 -4.25 5.949999999999999
63 1 -5.95 -5.1 5.949999999999999
64 1 -5.95 -4.25 5.1
65 1 -6.8 -3.4 -6.8
66 1 -6.8 -2.55 -5.95
67 1 -5.95 -3.4 -5.95
68 1 -5.95 -2.55 -6.8
69 1 -6.8 -3.4 -5.1
70 1 -6.8 -2.55 -4.25
71 1 -5.95 -3.4 -4.25
72 1 -5.95 -2.55 -5.1
73 1 -6.8 -3.4 -3.4
74 1 -6.8 -2.55 -2.55
75 1 -5.95 -3.4 -2.55
76 1 -5.95 -2.55 -3.4
77 1 -6.8 -3.4 -1.7
78 1 -6.8 -2.55 -0.85
79 1 -5.95 -3.4 -0.85
80 1 -5.95 -2.55 -1.7
81 1 -6.8 -3.4 0.0
82 1 -6.8 -2.55 0.85
83 1 -5.95 -3.4 0.85
84 1 -5.95 -2.55 0.0
85 1 -6.8 -3.4 1.7
86 1 -6.8 -2.55 2.55
87 1 -5.95 -3.4 2.55
88 1 -5.95 -2.55 1.7
89 1 -6.8 -3.4 3.4
90 1 -6.8 -2.55 4.25
91 1 -5.95 -3.4 4.25
92 1 -5.95 -2.55 3.4
93 1 -6.8 -3.4 5.1
94 1 -6.8 -2.55 5.949999999999999
95 1 -5.95 -3.4 5.949999999999999
96 1 -5.95 -2.55 5.1
97 1 -6.8 -1.7 -6.8
98 1 -6.8 -0.85 -5.95
99 1 -5.95 -1.7 -5.95
100 1 -5.95 -0.85 -6.8
101 1 -6.8 -1.7 -5.1
102 1 -6.8 -0.85 -4.25
103 1 -5.95 -1.7 -4.25
104 1 -5.95 -0.85 -5.1
105 1 -6.8 -1.7 -3.4
106 1 -6.8 -0.85 -2.55
107 1 -5.95 -1.7 -2.55
108 1 -5.95 -0.85 -3.4
109 1 -6.8 -1.7 -1.7
110 1 -6.8 -0.85 -0.85
111 1 -5.95 -1.7 -0.85
112 1 -5.95 -0.85 -1.7
113 1 -6.8 -1.7 0.0
114 1 -6.8 -0.85 0.85
115 1 -5.95 -1.7 0.85
116 1 -5.95 -0.85 0.0
117 1 -6.8 -1.7 1.7
118 1 -6.8 -0.85 2.55
119 1 -5.95 -1.7 2.55
120 1 -5.95 -0.85 1.7
121 1 -6.8 -1.7 3.4
122 1 -6.8 -0.85 4.25
123 1 -5.95 -1.7 4.25
124 1 -5.95 -0.85 3.4
125 1 -6.8 -1.7 5.1
126 1 -6.8 -0.85 5.949999999999999
127 1 -5.95 -1.7 5.949999999999999
128 1 -5.95 -0.85 5.1
129 1 -6.8 0.0 -6.8
130 1 -6.8 0.85 -5.95
131 1 -5.95 0.0 -5.95
132 1 -5.95 0.85 -6.8
133 1 -6.8 0.0 -5.1
134 1 -6.8 0.85 -4.25
135 1 -5.95 0.0 -4.25
136 1 -5.95 0.85 -5.1
137 1 -6.8 0.0 -3.4
138 1 -6.8 0.85 -2.55
139 1 -5.95 0.0 -2.55
140 1 -5.95 0.85 -3.4
141 1 -6.8 0.0 -1.7
142 1 -6.8 0.85 -0.85
143 1 -5.95 0.0 -0.85
144 1 -5.95 0.85 -1.7
145 1 -6.8 0.0 0.0
146 1 -6.8 0.85 0.85
147 1 -5.95 0.0 0.85
148 1 -5.95 0.85 0.0
149 1 -6.8 0.0 1.7
150 1 -6.8 0.85 2.55
151 1 -5.95 0.0 2.55
152 1 -5.95 0.85 1.7
153 1 -6.8 0.0 3.4
154 1 -6.8 0.85 4.25
155 1 -5.95 0.0 4.25
156 1 -5.95 0.85 3.4
157 1 -6.8 0.0 5.1
158 1 -6.8 0.85 5.949999999999999
159 1 -5.95 0.0 5.949999999999999
160 1 -5.95 0.85 5.1
161 1 -6.8 1.7 -6.8
162 1 -6.8 2.55 -5.95
163 1 -5.95 1.7 -5.95
164 1 -5.95 2.55 -6.8
165 1 -6.8 1.7 -5.1
166 1 -6.8 2.55 -4.25
167 1 -5.95 1.7 -4.25
168 1 -5.95 2.55 -5.1
169 1 -6.8 1.7 -3.4
170 1 -6.8 2.55 -2.55
171 1 -5.95 1.7 -2.55
172 1 -5.95 2.55 -3.4
173 1 -6.8 1.7 -1.7
174 1 -6.8 2.55 -0.85
175 1 -5.95 1.7 -0.85
176 1 -5.95 2.55 -1.7
177 1 -6.8 1.7 0.0
178 1 -6.8 2.55 0.85
179 1 -5.95 1.7 0.85
180 1 -5.95 2.55 0.0
181 1 -6.8 1.7 1.7
182 1 -6.8 2.55 2.55
183 1 -5.95 1.7 2.55
184 1 -5.95 2.55 1.7
185 1 -6.8 1.7 3.4
186 1 -6.8 2.55 4.25
187 1 -5.95 1.7 4.25
188 1 -5.95 2.55 3.4
189 1 -6.8 1.7 5.1
190 1 -6.8 2.55 5.949999999999999
191 1 -5.95 1.7 5.949999999999999
192 1 -5.95 2.55 5.1
193 1 -6.8 3.4 -6.8
194 1 -6.8 4.25 -5.95
195 1 -5.95 3.4 -5.95
196 1 -5.95 4.25 -6.8
197 1 -6.8 3.4 -5.1
198 1 -6.8 4.25 -4.25
199 1 -5.95 3.4 -4.25
200 1 -5.95 4.25 -5.1
201 1 -6.8 3.4 -3.4
202 1 -6.8 4.25 -2.55
203 1 -5.95 3.4 -2.55
204 1 -5.95 4.25 -3.4
205 1 -6.8 3.4 -1.7
206 1 -6.8 4.25 -0.85
207 1 -5.95 3.4 -0.85
208 1 -5.95 4.25 -1.7
209 1 -6.8 3.4 0.0
210 1 -6.8 4.25 0.85
211 1 -5.95 3.4 0.85
212 1 -5.95 4.25 0.0
213 1 -6.8 3.4 1.7
214 1 -6.8 4.25 2.55
215 1 -5.95 3.4 2.55
216 1 -5.95 4.25 1.7
217 1 -6.8 3.4 3.4
218 1 -6.8 4.25 4.25
219 1 -5.95 3.4 4.25
220 1 -5.95 4.25 3.4
221 1 -6.8 3.4 5.1
222 1 -6.8 4.25 5.949999999999999
223 1 -5.95 3.4 5.949999999999999
224 1 -5.95 4.25 5.1
225 1 -6.8 5.1 -6.8
226 1 -6.8 5.949999999999999 -5.95
227 1 -5.95 5.1 -5.95
228 1 -5.95 5.949999999999999 -6.8
229 1 -6.8 5.1 -5.1
230 1 -6.8 5.949999999999999 -4.25
231 1 -5.95 5.1 -4.25
232 1 -5.95 5.949999999999999 -5.1
233 1 -6.8 5.1 -3.4
234 1 -6.8 5.949999999999999 -2.55
235 1 -5.95 5.1 -2.55
236 1 -5.95 5.949999999999999 -3.4
237 1 -6.8 5.1 -1.7
238 1 -6.8 5.949999999999999 -0.85
239 1 -5.95 5.1 -0.85
240 1 -5.95 5.949999999999999 -1.7
241 1 -6.8 5.1 0.0
242 1 -6.8 5.949999999999999 0.85
243 1 -5.95 5.1 0.85
244 1 -5.95 5.949999999999999 0.0
245 1 -6.8 5.1 1.7
246 1 -6.8 5.949999999999999 2.55
247 1 -5.95 5.1 2.55
248 1 -5.95 5.949999999999999 1.7
249 1 -6.8 5.1 3.4
250 1 -6.8 5.949999999999999 4.25
251 1 -5.95 5.1 4.25
252 1 -5.95 5.949999999999999 3.4
253 1 -6.8 5.1 5.1
254 1 -6.8 5.949999999999999 5.949999999999999
255 1 -5.95 5.1 5.949999999999999
256 1 -5.95 5.949999999999999 5.1
257 1 -5.1 -6.8 -6.8
258 1 -5.1 -5.95 -5.95
259 1 -4.25 -6.8 -5.95
260 1 -4.25 -5.95 -6.8
261 1 -5.1 -6.8 -5.1
262 1 -5.1 -5.95 -4.25
263 1 -4.25 -6.8 -4.25
264 1 -4.25 -5.95 -5.1
265 1 -5.1 -6.8 -3.4
266 1 -5.1 -5.95 -2.55
267 1 -4.25 -6.8 -2.55
268 1 -4.25 -5.95 -3.4
269 1 -5.1 -6.8 -1.7
270 1 -5.1 -5.95 -0.85
271 1 -4.25 -6.8 -0.85
272 1 -4.25 -5.95 -1.7
273 1 -5.1 -6.8 0.0
274 1 -5.1 -5.95 0.85
275 1 -4.25 -6.8 0.85
276 1 -4.25 -5.95 0.0
277 1 -5.1 -6.8 1.7
278 1 -5.1 -5.95 2.55
279 1 -4.25 -6.8 2.55
280 1 -4.25 -5.95 1.7
281 1 -5.1 -6.8 3.4
282 1 -5.1 -5.95 4.25
283 1 -4.25 -6.8 4.25
284 1 -4.25 -5.95 3.4
285 1 -5.1 -6.8 5.1
286 1 -5.1 -5.95 5.949999999999999
287 1 -4.25 -6.8 5.949999999999999
288 1 -4.25 -5.95 5.1
289 1 -5.1 -5.1 -6.8
290 1 -5.1 -4.25 -5.95
291 1 -4.25 -5.1 -5.95
292 1 -4.25 -4.25 -6.8
293 1 -5.1 -5.1 -5.1
294 1 -5.1 -4.25 -4.25
295 1 -4.25 -5.1 -4.25
296 1 -4.25 -4.25 -5.1
297 1 -5.1 -5.1 -3.4
298 1 -5.1 -4.25 -2.55
299 1 -4.25 -5.1 -2.55
300 1 -4.25 -4.25 -3.4
301 1 -5.1 -5.1 -1.7
302 1 -5.1 -4.25 -0.85
303 1 -4.25 -5.1 -0.85
304 1 -4.25 -4.25 -1.7
305 1 -5.1 -5.1 0.0
306 1 -5.1 -4.25 0.85
307 1 -4.25 -5.1 0.85
308 1 -4.25 -4.25 0.0
309 1 -5.1 -5.1 1.7
310 1 -5.1 -4.25 2.55
311 1 -4.25 -5.1 2.55
312 1 -4.25 -4.25 1.7
313 1 -5.1 -5.1 3.4
314 1 -5.1 -4.25 4.25
315 1 -4.25 -5.1 4.25
316 1 -4.25 -4.25 3.4
317 1 -5.1 -5.1 5.1
318 1 -5.1 -4.25 5.949999999999999
319 1 -4.25 -5.1 5.949999999999999
320 1 -4.25 -4.25 5.1
321 1 -5.1 -3.4 -6.8
322 1 -5.1 -2.55 -5.95
323 1 -4.25 -3.4 -5.95
324 1 -4.25 -2.55 -6.8
325 1 -5.1 -3.4 -5.1
326 1 -5.1 -2.55 -4.25
327 1 -4.25 -3.4 -4.25
328 1 -4.25 -2.55 -5.1
329 1 -5.1 -3.4 -3.4
330 1 -5.1 -2.55 -2.55
331 1 -4.25 -3.4 -2.55
332 1 -4.25 -2.55 -3.4
333 1 -5.1 -3.4 -1.7
334 1 -5.1 -2.55 -0.85
335 1 -4.25 -3.4 -0.85
336 1 -4.25 -2.55 -1.7
337 1 -5.1 -3.4 0.0
338 1 -5.1 -2.55 0.85
339 1 -4.25 -3.4 0.85
340 1 -4.25 -2.55 0.0
341 1 -5.1 -3.4 1.7
342 1 -5.1 -2.55 2.55
343 1 -4.25 -3.4 2.55
344 1 -4.25 -2.55 1.7
345 1 -5.1 -3.4 3.4
346 1 -5.1 -2.55 4.25
347 1 -4.25 -3.4 4.25
348 1 -4.25 -2.55 3.4
349 1 -5.1 -3.4 5.1
350 1 -5.1 -2.55 5.949999999999999
351 1 -4.25 -3.4 5.949999999999999
352 1 -4.25 -2.55 5.1
353 1 -5.1 -1.7 -6.8
354 1 -5.1 -0.85 -5.95
355 1 -4.25 -1.7 -5.95
356 1 -4.25 -0.85 -6.8
357 1 -5.1 -1.7 -5.1
358 1 -5.1 -0.85 -4.25
359 1 -4.25 -1.7 -4.25
360 1 -4.25 -0.85 -5.1
361 1 -5.1 -1.7 -3.4
362 1 -5.1 -0.85 -2.55
363 1 -4.25 -1.7 -2.55
364 1 -4.25 -0.85 -3.4
365 1 -5.1 -1.7 -1.7
366 1 -5.1 -0.85 -0.85
367 1 -4.25 -1.7 -0.85
368 1 -4.25 -0.85 -1.7
369 1 -5.1 -1.7 0.0
370 1 -5.1 -0.85 0.85
371 1 -4.25 -1.7 0.85
372 1 -4.25 -0.85 0.0
373 1 -5.1 -1.7 1.7
374 1 -5.1 -0.85 2.55
375 1 -4.25 -1.7 2.55
376 1 -4.25 -0.85 1.7
377 1 -5.1 -1.7 3.4
378 1 -5.1 -0.85 4.25
379 1 -4.25 -1.7 4.25
380 1 -4.25 -0.85 3.4
381 1 -5.1 -1.7 5.1
382 1 -5.1 -0.85 5.949999999999999
383 1 -4.25 -1.7 5.949999999999999
384 1 -4.25 -0.85 5.1
385 1 -5.1 0.0 -6.8
386 1 -5.1 0.85 -5.95
387 1 -4.25 0.0 -5.95
388 1 -4.25 0.85 -6.8
389 1 -5.1 0.0 -5.1
390 1 -5.1 0.85 -4.25
391 1 -4.25 0.0 -4.25
392 1 -4.25 0.85 -5.1
393 1 -5.1 0.0 -3.4
394 1 -5.1 0.85 -2.55
395 1 -4.25 0.0 -2.55
396 1 -4.25 0.85 -3.4
397 1 -5.1 0.0 -1.7
398 1 -5.1 0.85 -0.85
399 1 -4.25 0.0 -0.85
400 1 -4.25 0.85 -1.7
401 1 -5.1 0.0 0.0
402 1 -5.1 0.85 0.85
403 1 -4.25 0.0 0.85
404 1 -4.25 0.85 0.0
405 1 -5.1 0.0 1.7
406 1 -5.1 0.85 2.55
407 1 -4.25 0.0 2.55
408 1 -4.25 0.85 1.7
409 1 -5.1 0.0 3.4
410 1 -5.1 0.85 4.25
411 1 -4.25 0.0 4.25
412 1 -4.25 0.85 3.4
413 1 -5.1 0.0 5.1
414 1 -5.1 0.85 5.949999999999999
415 1 -4.25 0.0 5.949999999999999
416 1 -4.25 0.85 5.1
417 1 -5.1 1.7 -6.8
418 1 -5.1 2.55 -5.95
419 1 -4.25 1.7 -5.95
420 1 -4.25 2.55 -6.8
421 1 -5.1 1.7 -5.1
422 1 -5.1 2.55 -4.25
423 1 -4.25 1.7 -4.25
424 1 -4.25 2.55 -5.1
425 1 -5.1 1.7 -3.4
426 1 -5.1 2.55 -2.55
427 1 -4.25 1.7 -2.55
428 1 -4.25 2.55 -3.4
429 1 -5.1 1.7 -1.7
430 1 -5.1 2.55 -0.85
431 1 -4.25 1.7 -0.85
432 1 -4.25 2.55 -1.7
433 1 -5.1 1.7 0.0
434 1 -5.1 2.55 0.85
435 1 -4.25 1.7 0.85
436 1 -4.25 2.55 0.0
437 1 -5.1 1.7 1.7
438 1 -5.1 2.55 2.55
439 1 -4.25 1.7 2.55
440 1 -4.25 2.55 1.7
441 1 -5.1 1.7 3.4
442 1 -5.1 2.55 4.25
443 1 -4.25 1.7 4.25
444 1 -4.25 2.55 3.4
445 1 -5.1 1.7 5.1
446 1 -5.1 2.55 5.949999999999999
447 1 -4.25 1.7 5.949999999999999
448 1 -4.25 2.55 5.1
449 1 -5.1 3.4 -6.8
450 1 -5.1 4.25 -5.95
451 1 -4.25 3.4 -5.95
452 1 -4.25 4.25 -6.8
453 1 -5.1 3.4 -5.1
454 1 -5.1 4.25 -4.25
455 1 -4.25 3.4 -4.25
456 1 -4.25 4.25 -5.1
457 1 -5.1 3.4 -3.4
458 1 -5.1 4.25 -2.55
459 1 -4.25 3.4 -2.55
460 1 -4.25 4.25 -3.4
461 1 -5.1 3.4 -1.7
462 1 -5.1 4.25 -0.85
463 1 -4.25 3.4 -0.85
464 1 -4.25 4.25 -1.7
465 1 -5.1 3.4 0.0
466 1 -5.1 4.25 0.85
467 1 -4.25 3.4 0.85
468 1 -4.25 4.25 0.0
469 1 -5.1 3.4 1.7
470 1 -5.1 4.25 2.55
471 1 -4.25 3.4 2.55
472 1 -4.25 4.25 1.7
473 1 -5.1 3.4 3.4
474 1 -5.1 4.25 4.25
475 1 -4.25 3.4 4.25
476 1 -4.25 4.25 3.4
477 1 -5.1 3.4 5.1
478 1 -5.1 4.25 5.949999999999999
479 1 -4.25 3.4 5.949999999999999
480 1 -4.25 4.25 5.1
481 1 -5.1 5.1 -6.8
482 1 -5.1 5.949999999999999 -5.95
483 1 -4.25 5.1 -5.95
484 1 -4.25 5.949999999999999 -6.8
485 1 -5.1 5.1 -5.1
486 1 -5.1 5.949999999999999 -4.25
487 1 -4.25 5.1 -4.25
488 1 -4.25 5.949999999999999 -5.1
489 1 -5.1 5.1 -3.4
490 1 -5.1 5.949999999999999 -2.55
491 1 -4.25 5.1 -2.55
492 1 -4.25 5.949999999999999 -3.4
493 1 -5.1 5.1 -1.7
494 1 -5.1 5.949999999999999 -0.85
495 1 -4.25 5.1 -0.85
496 1 -4.25 5.949999999999999 -1.7
497 1 -5.1 5.1 0.0
498 1 -5.1 5.949999999999999 0.85
499 1 -4.25 5.1 0.85
500 1 -4.25 5.949999999999999 0.0
501 1 -5.1 5.1 1.7
502 1 -5.1 5.949999999999999 2.55
503 1 -4.25 5.1 2.55
504 1 -4.25 5.949999999999999 1.7
505 1 -5.1 5.1 3.4
506 1 -5.1 5.949999999999999 4.25
507 1 -4.25 5.1 4.25
508 1 -4.25 5.949999999999999 3.4
509 1 -5.1 5.1 5.1
510 1 -5.1 5.949999999999999 5.949999999999999
511 1 -4.25 5.1 5.949999999999999
512 1 -4.25 5.949999999999999 5.1
513 1 -3.4 -6.8 -6.8
514 1 -3.4 -5.95 -5.95
515 1 -2.55 -6.8 -5.95
516 1 -2.55 -5.95 -6.8
517 1 -3.4 -6.8 -5.1
518 1 -3.4 -5.95 -4.25
519 1 -2.55 -6.8 -4.25
520 1 -2.55 -5.95 -5.1
521 1 -3.4 -6.8 -3.4
522 1 -3.4 -5.95 -2.55
523 1 -2.55 -6.8 -2.55
524 1 -2.55 -5.95 -3.4
525 1 -3.4 -6.8 -1.7
526 1 -3.4 -5.95 -0.85
527 1 -2.55 -6.8 -0.85
528 1 -2.55 -5.95 -1.7
529 1 -3.4 -6.8 0.0
530 1 -3.4 -5.95 0.85
531 1 -2.55 -6.8 0.85
532 1 -2.55 -5.95 0.0
533 1 -3.4 -6.8 1.7
534 1 -3.4 -5.95 2.55
535 1 -2.55 -6.8 2.55
536 1 -2.55 -5.95 1.7
537 1 -3.4 -6.8 3.4
538 1 -3.4 -5.95 4.25
539 1 -2.55 -6.8 4.25
540 1 -2.55 -5.95 3.4
541 1 -3.4 -6.8 5.1
542 1 -3.4 -5.95 5.949999999999999
543 1 -2.55 -6.8 5.949999999999999
544 1 -2.55 -5.95 5.1
545 1 -3.4 -5.1 -6.8
546 1 -3.4 -4.25 -5.95
547 1 -2.55 -5.1 -5.95
548 1 -2.55 -4.25 -6.8
549 1 -3.4 -5.1 -5.1
550 1 -3.4 -4.25 -4.25
551 1 -2.55 -5.1 -4.25
552 1 -2.55 -4.25 -5.1
553 1 -3.4 -5.1 -3.4
554 1 -3.4 -4.25 -2.55
555 1 -2.55 -5.1 -2.55
556 1 -2.55 -4.25 -3.4
557 1 -3.4 -5.1 -1.7
558 1 -3.4 -4.25 -0.85
559 1 -2.55 -5.1 -0.85
560 1 -2.55 -4.25 -1.7
561 1 -3.4 -5.1 0.0
562 1 -3.4 -4.25 0.85
563 1 -2.55 -5.1 0.85
564 1 -2.55 -4.25 0.0
565 1 -3.4 -5.1 1.7
566 1 -3.4 -4.25 2.55
567 1 -2.55 -5.1 2.55
568 1 -2.55 -4.25 1.7
569 1 -3.4 -5.1 3.4
570 1 -3.4 -4.25 4.25
571 1 -2.55 -5.1 4.25
572 1 -2.55 -4.25 3.4
573 1 -3.4 -5.1 5.1
574 1 -3.4 -4.25 5.949999999999999
575 1 -2.55 -5.1 5.949999999999999
576 1 -2.55 -4.25 5.1
577 1 -3.4 -3.4 -6.8
578 1 -3.4 -2.55 -5.95
579 1 -2.55 -3.4 -5.95
580 1 -2.55 -2.55 -6.8
581 1 -3.4 -3.4 -5.1
582 1 -3.4 -2.55 -4.25
583 1 -2.55 -3.4 -4.25
584 1 -2.55 -2.55 -5.1
585 1 -3.4 -3.4 -3.4
586 1 -3.4 -2.55 -2.55
587 1 -2.55 -3.4 -2.55
588 1 -2.55 -2.55 -3.4
589 1 -3.4 -3.4 -1.7
590 1 -3.4 -2.55 -0.85
591 1 -2.55 -3.4 -0.85
592 1 -2.55 -2.55 -1.7
593 1 -3.4 -3.4 0.0
594 1 -3.4 -2.55 0.85
595 1 -2.55 -3.4 0.85
596 1 -2.55 -2.55 0.0
597 1 -3.4 -3.4 1.7
598 1 -3.4 -2.55 2.55
599 1 -2.55 -3.4 2.55
600 1 -2.55 -2.55 1.7
601 1 -3.4 -3.4 3.4
602 1 -3.4 -2.55 4.25
603 1 -2.55 -3.4 4.25
604 1 -2.55 -2.55 3.4
605 1 -3.4 -3.4 5.1
606 1 -3.4 -2.55 5.949999999999999
607 1 -2.55 -3.4 5.949999999999999
608 1 -2.55 -2.55 5.1
609 1 -3.4 -1.7 -6.8
610 1 -3.4 -0.85 -5.95
611 1 -2.55 -1.7 -5.95
612 1 -2.55 -0.85 -6.8
613 1 -3.4 -1.7 -5.1
614 1 -3.4 -0.85 -4.25
615 1 -2.55 -1.7 -4.25
616 1 -2.55 -0.85 -5.1
617 1 -3.4 -1.7 -3.4
618 1 -3.4 -0.85 -2.55
619 1 -2.55 -1.7 -2.55
620 1 -2.55 -0.85 -3.4
621 1 -3.4 -1.7 -1.7
622 1 -3.4 -0.85 -0.85
623 1 -2.55 -1.7 -0.85
624 1 -2.55 -0.85 -1.7
625 1 -3.4 -1.7 0.0
626 1 -3.4 -0.85 0.85
627 1 -2.55 -1.7 0.85
628 1 -2.55 -0.85 0.0
629 1 -3.4 -1.7 1.7
630 1 -3.4 -0.85 2.55
631 1 -2.55 -1.7 2.55
632 1 -2.55 -0.85 1.7
633 1 -3.4 -1.7 3.4
634 1 -3.4 -0.85 4.25
635 1 -2.55 -1.7 4.25
636 1 -2.55 -0.85 3.4
637 1 -3.4 -1.7 5.1
638 1 -3.4 -0.85 5.949999999999999
639 1 -2.55 -1.7 5.949999999999999
640 1 -2.55 -0.85 5.1
641 1 -3.4 0.0 -6.8
642 1 -3.4 0.85 -5.95
643 1 -2.55 0.0 -5.95
644 1 -2.55 0.85 -6.8
645 1 -3.4 0.0 -5.1
646 1 -3.4 0.85 -4.25
647 1 -2.55 0.0 -4.25
648 1 -2.55 0.85 -5.1
649 1 -3.4 0.0 -3.4
650 1 -3.4 0.85 -2.55
651 1 -2.55 0.0 -2.55
652 1 -2.55 0.85 -3.4
653 1 -3.4 0.0 -1.7
654 1 -3.4 0.85 -0.85
655 1 -2.55 0.0 -0.85
656 1 -2.55 0.85 -1.7
657 1 -3.4 0.0 0.0
658 1 -3.4 0.85 0.85
659 1 -2.55 0.0 0.85
660 1 -2.55 0.85 0.0
661 1 -3.4 0.0 1.7
662 1 -3.4 0.85 2.55
663 1 -2.55 0.0 2.55
664 1 -2.55 0.85 1.7
665 1 -3.4 0.0 3.4
666 1 -3.4 0.85 4.25
667 1 -2.55 0.0 4.25
668 1 -2.55 0.85 3.4
669 1 -3.4 0.0 5.1
670 1 -3.4 0.85 5.949999999999999
671 1 -2.55 0.0 5.949999999999999
672 1 -2.55 0.85 5.1
673 1 -3.4 1.7 -6.8
674 1 -3.4 2.55 -5.95
675 1 -2.55 1.7 -5.95
676 1 -2.55 2.55 -6.8
677 1 -3.4 1.7 -5.1
678 1 -3.4 2.55 -4.25
679 1 -2.55 1.7 -4.25
680 1 -2.55 2.55 -5.1
681 1 -3.4 1.7 -3.4
682 1 -3.4 2.55 -2.55
683 1 -2.55 1.7 -2.55
684 1 -2.55 2.55 -3.4
685 1 -3.4 1.7 -1.7
686 1 -3.4 2.55 -0.85
687 1 -2.55 1.7 -0.85
688 1 -2.55 2.55 -1.7
689 1 -3.4 1.7 0.0
690 1 -3.4 2.55 0.85
691 1 -2.55 1.7 0.85
692 1 -2.55 2.55 0.0
693 1 -3.4 1.7 1.7
694 1 -3.4 2.55 2.55
695 1 -2.55 1.7 2.55
696 1 -2.55 2.55 1.7
697 1 -3.4 1.7 3.4
698 1 -3.4 2.55 4.25
699 1 -2.55 1.7 4.25
700 1 -2.55 2.55 3.4
701 1 -3.4 1.7 5.1
702 1 -3.4 2.55 5.949999999999999
703 1 -2.55 1.7 5.949999999999999
704 1 -2.55 2.55 5.1
705 1 -3.4 3.4 -6.8
706 1 -3.4 4.25 -5.95
707 1 -2.55 3.4 -5.95
708 1 -2.55 4.25 -6.8
709 1 -3.4 3.4 -5.1
710 1 -3.4 4.25 -4.25
711 1 -2.55 3.4 -4.25
712 1 -2.55 4.25 -5.1
713 1 -3.4 3.4 -3.4
714 1 -3.4 4.25 -2.55
715 1 -2.55 3.4 -2.55
716 1 -2.55 4.25 -3.4
717 1 -3.4 3.4 -1.7
718 1 -3.4 4.25 -0.85
719 1 -2.55 3.4 -0.85
720 1 -2.55 4.25 -1.7
721 1 -3.4 3.4 0.0
722 1 -3.4 4.25 0.85
723 1 -2.55 3.4 0.85
724 1 -2.55 4.25 0.0
725 1 -3.4 3.4 1.7
726 1 -3.4 4.25 2.55
727 1 -2.55 3.4 2.55
728 1 -2.55 4.25 1.7
729 1 -3.4 3.4 3.4
730 1 -3.4 4.25 4.25
731 1 -2.55 3.4 4.25
732 1 -2.55 4.25 3.4
733 1 -3.4 3.4 5.1
734 1 -3.4 4.25 5.949999999999999
735 1 -2.55 3.4 5.949999999999999
736 1 -2.55 4.25 5.1
737 1 -3.4 5.1 -6.8
738 1 -3.4 5.949999999999999 -5.95
739 1 -2.55 5.1 -5.95
740 1 -2.55 5.949999999999999 -6.8
741 1 -3.4 5.1 -5.1
742 1 -3.4 5.949999999999999 -4.25
743 1 -2.55 5.1 -4.25
744 1 -2.55 5.949999999999999 -5.1
745 1 -3.4 5.1 -3.4
746 1 -3.4 5.949999999999999 -2.55
747 1 -2.55 5.1 -2.55
748 1 -2.55 5.949999999999999 -3.4
749 1 -3.4 5.1 -1.7
750 1 -3.4 5.949999999999999 -0.85
751 1 -2.55 5.1 -0.85
752 1 -2.55 5.949999999999999 -1.7
753 1 -3.4 5.1 0.0
754 1 -3.4 5.949999999999999 0.85
755 1 -2.55 5.1 0.85
756 1 -2.55 5.949999999999999 0.0
757 1 -3.4 5.1 1.7
758 1 -3.4 5.949999999999999 2.55
759 1 -2.55 5.1 2.55
760 1 -2.55 5.949999999999999 1.7
761 1 -3.4 5.1 3.4
762 1 -3.4 5.949999999999999 4.25
763 1 -2.55 5.1 4.25
764 1 -2.55 5.949999999999999 3.4
765 1 -3.4 5.1 5.1
766 1 -3.4 5.949999999999999 5.949999999999999
767 1 -2.55 5.1 5.949999999999999
768 1 -2.55 5.949999999999999 5.1
769 1 -1.7 -6.8 -6.8
770 1 -1.7 -5.95 -5.95
771 1 -0.85 -6.8 -5.95
772 1 -0.85 -5.95 -6.8
773 1 -1.7 -6.8 -5.1
774 1 -1.7 -5.95 -4.25
775 1 -0.85 -6.8 -4.25
776 1 -0.85 -5.95 -5.1
777 1 -1.7 -6.8 -3.4
778 1 -1.7 -5.95 -2.55
779 1 -0.85 -6.8 -2.55
780 1 -0.85 -5.95 -3.4
781 1 -1.7 -6.8 -1.7
782 1 -1.7 -5.95 -0.85
783 1 -0.85 -6.8 -0.85
784 1 -0.85 -5.95 -1.7
785 1 -1.7 -6.8 0.0
786 1 -1.7 -5.95 0.85
787 1 -0.85 -6.8 0.85
788 1 -0.85 -5.95 0.0
789 1 -1.7 -6.8 1.7
790 1 -1.7 -5.95 2.55
791 1 -0.85 -6.8 2.55
792 1 -0.85 -5.95 1.7
793 1 -1.7 -6.8 3.4
794 1 -1.7 -5.95 4.25
795 1 -0.85 -6.8 4.25
796 1 -0.85 -5.95 3.4
797 1 -1.7 -6.8 5.1
798 1 -1.7 -5.95 5.949999999999999
799 1 -0.85 -6.8 5.949999999999999
800 1 -0.85 -5.95 5.1
801 1 -1.7 -5.1 -6.8
802 1 -1.7 -4.25 -5.95
803 1 -0.85 -5.1 -5.95
804 1 -0.85 -4.25 -6.8
805 1 -1.7 -5.1 -5.1
806 1 -1.7 -4.25 -4.25
807 1 -0.85 -5.1 -4.25
808 1 -0.85 -4.25 -5.1
809 1 -1.7 -5.1 -3.4
810 1 -1.7 -4.25 -2.55
811 1 -0.85 -5.1 -2.55
812 1 -0.85 -4.25 -3.4
813 1 -1.7 -5.1 -1.7
814 1 -1.7 -4.25 -0.85
815 1 -0.85 -5.1 -0.85
816 1 -0.85 -4.25 -1.7
817 1 -1.7 -5.1 0.0
818 1 -1.7 -4.25 0.85
819 1 -0.85 -5.1 0.85
820 1 -0.85 -4.25 0.0
821 1 -1.7 -5.1 1.7
822 1 -1.7 -4.25 2.55
823 1 -0.85 -5.1 2.55
824 1 -0.85 -4.25 1.7
825 1 -1.7 -5.1 3.4
826 1 -1.7 -4.25 4.25
827 1 -0.85 -5.1 4.25
828 1 -0.85 -4.25 3.4
829 1 -1.7 -5.1 5.1
830 1 -1.7 -4.25 5.949999999999999
831 1 -0.85 -5.1 5.949999999999999
832 1 -0.85 -4.25 5.1
833 1 -1.7 -3.4 -6.8
834 1 -1.7 -2.55 -5.95
835 1 -0.85 -3.4 -5.95
836 1 -0.85 -2.55 -6.8
837 1 -1.7 -3.4 -5.1
838 1 -1.7 -2.55 -4.25
839 1 -0.85 -3.4 -4.25
840 1 -0.85 -2.55 -5.1
841 1 -1.7 -3.4 -3.4
842 1 -1.7 -2.55 -2.55
843 1 -0.85 -3.4 -2.55
844 1 -0.85 -2.55 -3.4
845 1 -1.7 -3.4 -1.7
846 1 -1.7 -2.55 -0.85
847 1 -0.85 -3.4 -0.85
848 1 -0.85 -2.55 -1.7
849 1 -1.7 -3.4 0.0
850 1 -1.7 -2.55 0.85
851 1 -0.85 -3.4 0.85
852 1 -0.85 -2.55 0.0
853 1 -1.7 -3.4 1.7
854 1 -1.7 -2.55 2.55
855 1 -0.85 -3.4 2.55
856 1 -0.85 -2.55 1.7
857 1 -1.7 -3.4 3.4
858 1 -1.7 -2.55 4.25
859 1 -0.85 -3.4 4.25
860 1 -0.85 -2.55 3.4
861 1 -1.7 -3.4 5.1
862 1 -1.7 -2.55 5.949999999999999
863 1 -0.85 -3.4 5.949999999999999
864 1 -0.85 -2.55 5.1
865 1 -1.7 -1.7 -6.8
866 1 -1.7 -0.85 -5.95
867 1 -0.85 -1.7 -5.95
868 1 -0.85 -0.85 -6.8
869 1 -1.7 -1.7 -5.1
870 1 -1.7 -0.85 -4.25
871 1 -0.85 -1.7 -4.25
872 1 -0.85 -0.85 -5.1
873 1 -1.7 -1.7 -3.4
874 1 -1.7 -0.85 -2.55
875 1 -0.85 -1.7 -2.55
876 1 -0.85 -0.85 -3.4
877 1 -1.7 -1.7 -1.7
878 1 -1.7 -0.85 -0.85
879 1 -0.85 -1.7 -0.85
880 1 -0.85 -0.85 -1.7
881 1 -1.7 -1.7 0.0
882 1 -1.7 -0.85 0.85
883 1 -0.85 -1.7 0.85
884 1 -0.85 -0.85 0.0
885 1 -1.7 -1.7 1.7
886 1 -1.7 -0.85 2.55
887 1 -0.85 -1.7 2.55
888 1 -0.85 -0.85 1.7
889 1 -1.7 -1.7 3.4
890 1 -1.7 -0.85 4.25
891 1 -0.85 -1.7 4.25
892 1 -0.85 -0.85 3.4
893 1 -1.7 -1.7 5.1
894 1 -1.7 -0.85 5.949999999999999
895 1 -0.85 -1.7 5.949999999999999
896 1 -0.85 -0.85 5.1
897 1 -1.7 0.0 -6.8
898 1 -1.7 0.85 -5.95
899 1 -0.85 0.0 -5.95
900 1 -0.85 0.85 -6.8
901 1 -1.7 0.0 -5.1
902 1 -1.7 0.85 -4.25
903 1 -0.85 0.0 -4.25
904 1 -0.85 0.85 -5.1
905 1 -1.7 0.0 -3.4
906 1 -1.7 0.85 -2.55
907 1 -0.85 0.0 -2.55
908 1 -0.85 0.85 -3.4
909 1 -1.7 0.0 -1.7
910 1 -1.7 0.85 -0.85
911 1 -0.85 0.0 -0.85
912 1 -0.85 0.85 -1.7
913 1 -1.7 0.0 0.0
914 1 -1.7 0.85 0.85
915 1 -0.85 0.0 0.85
916 1 -0.85 0.85 0.0
917 1 -1.7 0.0 1.7
918 1 -1.7 0.85 2.55
919 1 -0.85 0.0 2.55
920 1 -0.85 0.85 1.7
921 1 -1.7 0.0 3.4
922 1 -1.7 0.85 4.25
923 1 -0.85 0.0 4.25
924 1 -0.85 0.85 3.4
925 1 -1.7 0.0 5.1
926 1 -1.7 0.85 5.949999999999999
927 1 -0.85 0.0 5.949999999999999
928 1 -0.85 0.85 5.1
929 1 -1.7 1.7 -6.8
930 1 -1.7 2.55 -5.95
931 1 -0.85 1.7 -5.95
932 1 -0.85 2.55 -6.8
933 1 -1.7 1.7 -5.1
934 1 -1.7 2.55 -4.25
935 1 -0.85 1.7 -4.25
936 1 -0.85 2.55 -5.1
937 1 -1.7 1.7 -3.4
938 1 -1.7 2.55 -2.55
939 1 -0.85 1.7 -2.55
940 1 -0.85 2.55 -3.4
941 1 -1.7 1.7 -1.7
942 1 -1.7 2.55 -0.85
943 1 -0.85 1.7 -0.85
944 1 -0.85 2.55 -1.7
945 1 -1.7 1.7 0.0
946 1 -1.7 2.55 0.85
947 1 -0.85 1.7 0.85
948 1 -0.85 2.55 0.0
949 1 -1.7 1.7 1.7
950 1 -1.7 2.55 2.55
951 1 -0.85 1.7 2.55
952 1 -0.85 2.55 1.7
953 1 -1.7 1.7 3.4
954 1 -1.7 2.55 4.25
955 1 -0.85 1.7 4.25
956 1 -0.85 2.55 3.4
957 1 -1.7 1.7 5.1
958 1 -1.7 2.55 5.949999999999999
959 1 -0.85 1.7 5.949999999999999
960 1 -0.85 2.55 5.1
961 1 -1.7 3.4 -6.8
962 1 -1.7 4.25 -5.95
963 1 -0.85 3.4 -5.95
964 1 -0.85 4.25 -6.8
965 1 -1.7 3.4 -5.1
966 1 -1.7 4.25 -4.25
967 1 -0.85 3.4 -4.25
968 1 -0.85 4.25 -5.1
969 1 -1.7 3.4 -3.4
970 1 -1.7 4.25 -2.55
971 1 -0.85 3.4 -2.55
972 1 -0.85 4.25 -3.4
973 1 -1.7 3.4 -1.7
974 1 -1.7 4.25 -0.85
975 1 -0.85 3.4 -0.85
976 1 -0.85 4.25 -1.7
977 1 -1.7 3.4 0.0
978 1 -1.7 4.25 0.85
979 1 -0.85 3.4 0.85
980 1 -0.85 4.25 0.0
981 1 -1.7 3.4 1.7
982 1 -1.7 4.25 2.55
983 1 -0.85 3.4 2.55
984 1 -0.85 4.25 1.7
985 1 -1.7 3.4 3.4
986 1 -1.7 4.25 4.25
987 1 -0.85 3.4 4.25
988 1 -0.85 4.25 3.4
989 1 -1.7 3.4 5.1
990 1 -1.7 4.25 5.949999999999999
991 1 -0.85 3.4 5.949999999999999
992 1 -0.85 4.25 5.1
993 1 -1.7 5.1 -6.8
994 1 -1.7 5.949999999999999 -5.95
995 1 -0.85 5.1 -5.95
996 1 -0.85 5.949999999999999 -6.8
997 1 -1.7 5.1 -5.1
998 1 -1.7 5.949999999999999 -4.25
999 1 -0.85 5.1 -4.25
1000 1 -0.85 5.949999999999999 -5.1
1001 1 -1.7 5.1 -3.4
1002 1 -1.7 5.949999999999999 -2.55
1003 1 -0.85 5.1 -2.55
1004 1 -0.85 5.949999999999999 -3.4
1005 1 -1.7 5.1 -1.7
1006 1 -1.7 5.949999999999999 -0.85
1007 1 -0.85 5.1 -0.85
1008 1 -0.85 5.949999999999999 -1.7
1009 1 -1.7 5.1 0.0
1010 1 -1.7 5.949999999999999 0.85
1011 1 -0.85 5.1 0.85
1012 1 -0.85 5.949999999999999 0.0
1013 1 -1.7 5.1 1.7
1014 1 -1.7 5.949999999999999 2.55
1015 1 -0.85 5.1 2.55
1016 1 -0.85 5.949999999999999 1.7
1017 1 -1.7 5.1 3.4
1018 1 -1.7 5.949999999999999 4.25
1019 1 -0.85 5.1 4.25
1020 1 -0.85 5.949999999999999 3.4
1021 1 -1.7 5.1 5.1
1022 1 -1.7 5.949999999999999 5.949999999999999
1023 1 -0.85 5.1 5.949999999999999
1024 1 -0.85 5.949999999999999 5.1
1025 1 0.0 -6.8 -6.8
1026 1 0.0 -5.95 -5.95
1027 1 0.85 -6.8 -5.95
1028 1 0.85 -5.95 -6.8
1029 1 0.0 -6.8 -5.1
1030 1 0.0 -5.95 -4.25
1031 1 0.85 -6.8 -4.25
1032 1 0.85 -5.95 -5.1
1033 1 0.0 -6.8 -3.4
1034 1 0.0 -5.95 -2.55
1035 1 0.85 -6.8 -2.55
1036 1 0.85 -5.95 -3.4
1037 1 0.0 -6.8 -1.7
1038 1 0.0 -5.95 -0.85
1039 1 0.85 -6.8 -0.85
1040 1 0.85 -5.95 -1.7
1041 1 0.0 -6.8 0.0
1042 1 0.0 -5.95 0.85
1043 1 0.85 -6.8 0.85
1044 1 0.85 -5.95 0.0
1045 1 0.0 -6.8 1.7
1046 1 0.0 -5.95 2.55
1047 1 0.85 -6.8 2.55
1048 1 0.85 -5.95 1.7
1049 1 0.0 -6.8 3.4
1050 1 0.0 -5.95 4.25
1051 1 0.85 -6.8 4.25
1052 1 0.85 -5.95 3.4
1053 1 0.0 -6.8 5.1
1054 1 0.0 -5.95 5.949999999999999
1055 1 0.85 -6.8 5.949999999999999
1056 1 0.85 -5.95 5.1
1057 1 0.0 -5.1 -6.8
1058 1 0.0 -4.25 -5.95
1059 1 0.85 -5.1 -5.95
1060 1 0.85 -4.25 -6.8
1061 1 0.0 -5.1 -5.1
1062 1 0.0 -4.25 -4.25
1063 1 0.85 -5.1 -4.25
1064 1 0.85 -4.25 -5.1
1065 1 0.0 -5.1 -3.4
1066 1 0.0 -4.25 -2.55
1067 1 0.85 -5.1 -2.55
1068 1 0.85 -4.25 -3.4
1069 1 0.0 -5.1 -1.7
1070 1 0.0 -4.25 -0.85
1071 1 0.85 -5.1 -0.85
1072 1 0.85 -4.25 -1.7
1073 1 0.0 -5.1 0.0
1074 1 0.0 -4.25 0.85
1075 1 0.85 -5.1 0.85
1076 1 0.85 -4.25 0.0
1077 1 0.0 -5.1 1.7
1078 1 0.0 -4.25 2.55
1079 1 0.85 -5.1 2.55
1080 1 0.85 -4.25 1.7
1081 1 0.0 -5.1 3.4
1082 1 0.0 -4.25 4.25
1083 1 0.85 -5.1 4.25
1084 1 0.85 -4.25 3.4
1085 1 0.0 -5.1 5.1
1086 1 0.0 -4.25 5.949999999999999
1087 1 0.85 -5.1 5.949999999999999
1088 1 0.85 -4.25 5.1
1089 1 0.0 -3.4 -6.8
1090 1 0.0 -2.55 -5.95
1091 1 0.85 -3.4 -5.95
1092 1 0.85 -2.55 -6.8
1093 1 0.0 -3.4 -5.1
1094 1 0.0 -2.55 -4.25
1095 1 0.85 -3.4 -4.25
1096 1 0.85 -2.55 -5.1
1097 1 0.0 -3.4 -3.4
1098 1 0.0 -2.55 -2.55
1099 1 0.85 -3.4 -2.55
1100 1 0.85 -2.55 -3.4
1101 1 0.0 -3.4 -1.7
1102 1 0.0 -2.55 -0.85
1103 1 0.85 -3.4 -0.85
1104 1 0.85 -2.55 -1.7
1105 1 0.0 -3.4 0.0
1106 1 0.0 -2.55 0.85
1107 1 0.85 -3.4 0.85
1108 1 0.85 -2.55 0.0
1109 1 0.0 -3.4 1.7
1110 1 0.0 -2.55 2.55
1111 1 0.85 -3.4 2.55
1112 1 0.85 -2.55 1.7
1113 1 0.0 -3.4 3.4
1114 1 0.0 -2.55 4.25
1115 1 0.85 -3.4 4.25
1116 1 0.85 -2.55 3.4
1117 1 0.0 -3.4 5.1
1118 1 0.0 -2.55 5.949999999999999
1119 1 0.85 -3.4 5.949999999999999
1120 1 0.85 -2.55 5.1
1121 1 0.0 -1.7 -6.8
1122 1 0.0 -0.85 -5.95
1123 1 0.85 -1.7 -5.95
1124 1 0.85 -0.85 -6.8
1125 1 0.0 -1.7 -5.1
1126 1 0.0 -0.85 -4.25
1127 1 0.85 -1.7 -4.25
1128 1 0.85 -0.85 -5.1
1129 1 0.0 -1.7 -3.4
1130 1 0.0 -0.85 -2.55
1131 1 0.85 -1.7 -2.55
1132 1 0.85 -0.85 -3.4
1133 1 0.0 -1.7 -1.7
1134 1 0.0 -0.85 -0.85
1135 1 0.85 -1.7 -0.85
1136 1 0.85 -0.85 -1.7
1137 1 0.0 -1.7 0.0
1138 1 0.0 -0.85 0.85
1139 1 0.85 -1.7 0.85
1140 1 0.85 -0.85 0.0
1141 1 0.0 -1.7 1.7
1142 1 0.0 -0.85 2.55
1143 1 0.85 -1.7 2.55
1144 1 0.85 -0.85 1.7
1145 1 0.0 -1.7 3.4
1146 1 0.0 -0.85 4.25
1147 1 0.85 -1.7 4.25
1148 1 0.85 -0.85 3.4
1149 1 0.0 -1.7 5.1
1150 1 0.0 -0.85 5.949999999999999
1151 1 0.85 -1.7 5.949999999999999
1152 1 0.85 -0.85 5.1
1153 1 0.0 0.0 -6.8
1154 1 0.0 0.85 -5.95
1155 1 0.85 0.0 -5.95
1156 1 0.85 0.85 -6.8
1157 1 0.0 0.0 -5.1
1158 1 0.0 0.85 -4.25
1159 1 0.85 0.0 -4.25
1160 1 0.85 0.85 -5.1
1161 1 0.0 0.0 -3.4
1162 1 0.0 0.85 -2.55
1163 1 0.85 0.0 -2.55
1164 1 0.85 0.85 -3.4
1165 1 0.0 0.0 -1.7
1166 1 0.0 0.85 -0.85
1167 1 0.85 0.0 -0.85
1168 1 0.85 0.85 -1.7
1169 1 0.0 0.0 0.0
1170 1 0.0 0.85 0.85
1171 1 0.85 0.0 0.85
1172 1 0.85 0.85 0.0
1173 1 0.0 0.0 1.7
1174 1 0.0 0.85 2.55
1175 1 0.85 0.0 2.55
1176 1 0.85 0.85 1.7
1177 1 0.0 0.0 3.4
1178 1 0.0 0.85 4.25
1179 1 0.85 0.0 4.25
1180 1 0.85 0.85 3.4
1181 1 0.0 0.0 5.1
1182 1 0.0 0.85 5.949999999999999
1183 1 0.85 0.0 5.949999999999999
1184 1 0.85 0.85 5.1
1185 1 0.0 1.7 -6.8
1186 1 0.0 2.55 -5.95
1187 1 0.85 1.7 -5.95
1188 1 0.85 2.55 -6.8
1189 1 0.0 1.7 -5.1
1190 1 0.0 2.55 -4.25
1191 1 0.85 1.7 -4.25
1192 1 0.85 2.55 -5.1
1193 1 0.0 1.7 -3.4
1194 1 0.0 2.55 -2.55
1195 1 0.85 1.7 -2.55
1196 1 0.85 2.55 -3.4
1197 1 0.0 1.7 -1.7
1198 1 0.0 2.55 -0.85
1199 1 0.85 1.7 -0.85
1200 1 0.85 2.55 -1.7
1201 1 0.0 1.7 0.0
1202 1 0.0 2.55 0.85
1203 1 0.85 1.7 0.85
1204 1 0.85 2.55 0.0
1205 1 0.0 1.7 1.7
1206 1 0.0 2.55 2.55
1207 1 0.85 1.7 2.55
1208 1 0.85 2.55 1.7
1209 1 0.0 1.7 3.4
1210 1 0.0 2.55 4.25
1211 1 0.85 1.7 4.25
1212 1 0.85 2.55 3.4
1213 1 0.0 1.7 5.1
1214 1 0.0 2.55 5.949999999999999
1215 1 0.85 1.7 5.949999999999999
1216 1 0.85 2.55 5.1
1217 1 0.0 3.4 -6.8
1218 1 0.0 4.25 -5.95
1219 1 0.85 3.4 -5.95
1220 1 0.85 4.25 -6.8
1221 1 0.0 3.4 -5.1
1222 1 0.0 4.25 -4.25
1223 1 0.85 3.4 -4.25
1224 1 0.85 4.25 -5.1
1225 1 0.0 3.4 -3.4
1226 1 0.0 4.25 -2.55
1227 1 0.85 3.4 -2.55
1228 1 0.85 4.25 -3.4
1229 1 0.0 3.4 -1.7
1230 1 0.0 4.25 -0.85
1231 1 0.85 3.4 -0.85
1232 1 0.85 4.25 -1.7
1233 1 0.0 3.4 0.0
1234 1 0.0 4.25 0.85
1235 1 0.85 3.4 0.85
1236 1 0.85 4.25 0.0
1237 1 0.0 3.4 1.7
1238 1 0.0 4.25 2.55
1239 1 0.85 3.4 2.55
1240 1 0.85 4.25 1.7
1241 1 0.0 3.4 3.4
1242 1 0.0 4.25 4.25
1243 1 0.85 3.4 4.25
1244 1 0.85 4.25 3.4
1245 1 0.0 3.4 5.1
1246 1 0.0 4.25 5.949999999999999
1247 1 0.85 3.4 5.949999999999999
1248 1 0.85 4.25 5.1
1249 1 0.0 5.1 -6.8
1250 1 0.0 5.949999999999999 -5.95
1251 1 0.85 5.1 -5.95
1252 1 0.85 5.949999999999999 -6.8
1253 1 0.0 5.1 -5.1
1254 1 0.0 5.949999999999999 -4.25
1255 1 0.85 5.1 -4.25
1256 1 0.85 5.949999999999999 -5.1
1257 1 0.0 5.1 -3.4
1258 1 0.0 5.949999999999999 -2.55
1259 1 0.85 5.1 -2.55
1260 1 0.85 5.949999999999999 -3.4
1261 1 0.0 5.1 -1.7
1262 1 0.0 5.949999999999999 -0.85
1263 1 0.85 5.1 -0.85
1264 1 0.85 5.949999999999999 -1.7
1265 1 0.0 5.1 0.0
1266 1 0.0 5.949999999999999 0.85
1267 1 0.85 5.1 0.85
1268 1 0.85 5.949999999999999 0.0
1269 1 0.0 5.1 1.7
1270 1 0.0 5.949999999999999 2.55
1271 1 0.85 5.1 2.55
1272 1 0.85 5.949999999999999 1.7
1273 1 0.0 5.1 3.4
1274 1 0.0 5.949999999999999 4.25
1275 1 0.85 5.1 4.25
1276 1 0.85 5.949999999999999 3.4
1277 1 0.0 5.1 5.1
1278 1 0.0 5.949999999999999 5.949999999999999
1279 1 0.85 5.1 5.949999999999999
1280 1 0.85 5.949999999999999 5.1
1281 1 1.7 -6.8 -6.8
1282 1 1.7 -5.95 -5.95
1283 1 2.55 -6.8 -5.95
1284 1 2.55 -5.95 -6.8
1285 1 1.7 -6.8 -5.1
1286 1 1.7 -5.95 -4.25
1287 1 2.55 -6.8 -4.25
1288 1 2.55 -5.95 -5.1
1289 1 1.7 -6.8 -3.4
1290 1 1.7 -5.95 -2.55
1291 1 2.55 -6.8 -2.55
1292 1 2.55 -5.95 -3.4
1293 1 1.7 -6.8 -1.7
1294 1 1.7 -5.95 -0.85
1295 1 2.55 -6.8 -0.85
1296 1 2.55 -5.95 -1.7